V -t * -v 1.0a5 -a 0
A -t * -n 1 -p 0 -o 0x7fffffff -c 30 -a 1
A -t * -h 1 -m 1073741823 -s 0
c -t * -i 1 -n Blue
c -t * -i 2 -n Red
n -t * -a 4 -s 4 -S UP -v circle -c red -i red
n -t * -a 0 -s 0 -S UP -v box -c green -i green
n -t * -a 5 -s 5 -S UP -v circle -c black -i black
n -t * -a 1 -s 1 -S UP -v circle -c blue -i blue
n -t * -a 2 -s 2 -S UP -v circle -c red -i red
n -t * -a 3 -s 3 -S UP -v circle -c blue -i blue
l -t * -s 0 -d 1 -S UP -r 1000000 -D 0.01 -c black -o left-up
l -t * -s 2 -d 0 -S UP -r 1000000 -D 0.01 -c black -o left-down
l -t * -s 0 -d 3 -S UP -r 1000000 -D 0.01 -c black -o up
l -t * -s 0 -d 4 -S UP -r 1000000 -D 0.01 -c black -o left-down
l -t * -s 0 -d 5 -S UP -r 1000000 -D 0.01 -c black -o right-down
+ -t 0.5 -s 1 -d 0 -p tcp -e 40 -c 1 -i 0 -a 1 -x {1.0 3.0 0 ------- null}
- -t 0.5 -s 1 -d 0 -p tcp -e 40 -c 1 -i 0 -a 1 -x {1.0 3.0 0 ------- null}
h -t 0.5 -s 1 -d 0 -p tcp -e 40 -c 1 -i 0 -a 1 -x {1.0 3.0 -1 ------- null}
+ -t 0.5 -s 4 -d 0 -p tcp -e 40 -c 2 -i 1 -a 2 -x {4.0 2.0 0 ------- null}
- -t 0.5 -s 4 -d 0 -p tcp -e 40 -c 2 -i 1 -a 2 -x {4.0 2.0 0 ------- null}
h -t 0.5 -s 4 -d 0 -p tcp -e 40 -c 2 -i 1 -a 2 -x {4.0 2.0 -1 ------- null}
r -t 0.51032 -s 1 -d 0 -p tcp -e 40 -c 1 -i 0 -a 1 -x {1.0 3.0 0 ------- null}
+ -t 0.51032 -s 0 -d 3 -p tcp -e 40 -c 1 -i 0 -a 1 -x {1.0 3.0 0 ------- null}
- -t 0.51032 -s 0 -d 3 -p tcp -e 40 -c 1 -i 0 -a 1 -x {1.0 3.0 0 ------- null}
h -t 0.51032 -s 0 -d 3 -p tcp -e 40 -c 1 -i 0 -a 1 -x {1.0 3.0 -1 ------- null}
r -t 0.51032 -s 4 -d 0 -p tcp -e 40 -c 2 -i 1 -a 2 -x {4.0 2.0 0 ------- null}
+ -t 0.51032 -s 0 -d 2 -p tcp -e 40 -c 2 -i 1 -a 2 -x {4.0 2.0 0 ------- null}
- -t 0.51032 -s 0 -d 2 -p tcp -e 40 -c 2 -i 1 -a 2 -x {4.0 2.0 0 ------- null}
h -t 0.51032 -s 0 -d 2 -p tcp -e 40 -c 2 -i 1 -a 2 -x {4.0 2.0 -1 ------- null}
r -t 0.52064 -s 0 -d 3 -p tcp -e 40 -c 1 -i 0 -a 1 -x {1.0 3.0 0 ------- null}
+ -t 0.52064 -s 3 -d 0 -p ack -e 40 -c 1 -i 2 -a 1 -x {3.0 1.0 0 ------- null}
- -t 0.52064 -s 3 -d 0 -p ack -e 40 -c 1 -i 2 -a 1 -x {3.0 1.0 0 ------- null}
h -t 0.52064 -s 3 -d 0 -p ack -e 40 -c 1 -i 2 -a 1 -x {3.0 1.0 -1 ------- null}
r -t 0.52064 -s 0 -d 2 -p tcp -e 40 -c 2 -i 1 -a 2 -x {4.0 2.0 0 ------- null}
+ -t 0.52064 -s 2 -d 0 -p ack -e 40 -c 2 -i 3 -a 2 -x {2.0 4.0 0 ------- null}
- -t 0.52064 -s 2 -d 0 -p ack -e 40 -c 2 -i 3 -a 2 -x {2.0 4.0 0 ------- null}
h -t 0.52064 -s 2 -d 0 -p ack -e 40 -c 2 -i 3 -a 2 -x {2.0 4.0 -1 ------- null}
r -t 0.53096 -s 3 -d 0 -p ack -e 40 -c 1 -i 2 -a 1 -x {3.0 1.0 0 ------- null}
+ -t 0.53096 -s 0 -d 1 -p ack -e 40 -c 1 -i 2 -a 1 -x {3.0 1.0 0 ------- null}
- -t 0.53096 -s 0 -d 1 -p ack -e 40 -c 1 -i 2 -a 1 -x {3.0 1.0 0 ------- null}
h -t 0.53096 -s 0 -d 1 -p ack -e 40 -c 1 -i 2 -a 1 -x {3.0 1.0 -1 ------- null}
r -t 0.53096 -s 2 -d 0 -p ack -e 40 -c 2 -i 3 -a 2 -x {2.0 4.0 0 ------- null}
+ -t 0.53096 -s 0 -d 4 -p ack -e 40 -c 2 -i 3 -a 2 -x {2.0 4.0 0 ------- null}
- -t 0.53096 -s 0 -d 4 -p ack -e 40 -c 2 -i 3 -a 2 -x {2.0 4.0 0 ------- null}
h -t 0.53096 -s 0 -d 4 -p ack -e 40 -c 2 -i 3 -a 2 -x {2.0 4.0 -1 ------- null}
r -t 0.54128 -s 0 -d 1 -p ack -e 40 -c 1 -i 2 -a 1 -x {3.0 1.0 0 ------- null}
+ -t 0.54128 -s 1 -d 0 -p tcp -e 1040 -c 1 -i 4 -a 1 -x {1.0 3.0 1 ------- null}
- -t 0.54128 -s 1 -d 0 -p tcp -e 1040 -c 1 -i 4 -a 1 -x {1.0 3.0 1 ------- null}
h -t 0.54128 -s 1 -d 0 -p tcp -e 1040 -c 1 -i 4 -a 1 -x {1.0 3.0 -1 ------- null}
+ -t 0.54128 -s 1 -d 0 -p tcp -e 1040 -c 1 -i 5 -a 1 -x {1.0 3.0 2 ------- null}
r -t 0.54128 -s 0 -d 4 -p ack -e 40 -c 2 -i 3 -a 2 -x {2.0 4.0 0 ------- null}
+ -t 0.54128 -s 4 -d 0 -p tcp -e 1040 -c 2 -i 6 -a 2 -x {4.0 2.0 1 ------- null}
- -t 0.54128 -s 4 -d 0 -p tcp -e 1040 -c 2 -i 6 -a 2 -x {4.0 2.0 1 ------- null}
h -t 0.54128 -s 4 -d 0 -p tcp -e 1040 -c 2 -i 6 -a 2 -x {4.0 2.0 -1 ------- null}
+ -t 0.54128 -s 4 -d 0 -p tcp -e 1040 -c 2 -i 7 -a 2 -x {4.0 2.0 2 ------- null}
- -t 0.5496 -s 1 -d 0 -p tcp -e 1040 -c 1 -i 5 -a 1 -x {1.0 3.0 2 ------- null}
h -t 0.5496 -s 1 -d 0 -p tcp -e 1040 -c 1 -i 5 -a 1 -x {1.0 3.0 -1 ------- null}
- -t 0.5496 -s 4 -d 0 -p tcp -e 1040 -c 2 -i 7 -a 2 -x {4.0 2.0 2 ------- null}
h -t 0.5496 -s 4 -d 0 -p tcp -e 1040 -c 2 -i 7 -a 2 -x {4.0 2.0 -1 ------- null}
r -t 0.5596 -s 1 -d 0 -p tcp -e 1040 -c 1 -i 4 -a 1 -x {1.0 3.0 1 ------- null}
+ -t 0.5596 -s 0 -d 3 -p tcp -e 1040 -c 1 -i 4 -a 1 -x {1.0 3.0 1 ------- null}
- -t 0.5596 -s 0 -d 3 -p tcp -e 1040 -c 1 -i 4 -a 1 -x {1.0 3.0 1 ------- null}
h -t 0.5596 -s 0 -d 3 -p tcp -e 1040 -c 1 -i 4 -a 1 -x {1.0 3.0 -1 ------- null}
r -t 0.5596 -s 4 -d 0 -p tcp -e 1040 -c 2 -i 6 -a 2 -x {4.0 2.0 1 ------- null}
+ -t 0.5596 -s 0 -d 2 -p tcp -e 1040 -c 2 -i 6 -a 2 -x {4.0 2.0 1 ------- null}
- -t 0.5596 -s 0 -d 2 -p tcp -e 1040 -c 2 -i 6 -a 2 -x {4.0 2.0 1 ------- null}
h -t 0.5596 -s 0 -d 2 -p tcp -e 1040 -c 2 -i 6 -a 2 -x {4.0 2.0 -1 ------- null}
r -t 0.56792 -s 1 -d 0 -p tcp -e 1040 -c 1 -i 5 -a 1 -x {1.0 3.0 2 ------- null}
+ -t 0.56792 -s 0 -d 3 -p tcp -e 1040 -c 1 -i 5 -a 1 -x {1.0 3.0 2 ------- null}
r -t 0.56792 -s 4 -d 0 -p tcp -e 1040 -c 2 -i 7 -a 2 -x {4.0 2.0 2 ------- null}
+ -t 0.56792 -s 0 -d 2 -p tcp -e 1040 -c 2 -i 7 -a 2 -x {4.0 2.0 2 ------- null}
- -t 0.56792 -s 0 -d 3 -p tcp -e 1040 -c 1 -i 5 -a 1 -x {1.0 3.0 2 ------- null}
h -t 0.56792 -s 0 -d 3 -p tcp -e 1040 -c 1 -i 5 -a 1 -x {1.0 3.0 -1 ------- null}
- -t 0.56792 -s 0 -d 2 -p tcp -e 1040 -c 2 -i 7 -a 2 -x {4.0 2.0 2 ------- null}
h -t 0.56792 -s 0 -d 2 -p tcp -e 1040 -c 2 -i 7 -a 2 -x {4.0 2.0 -1 ------- null}
r -t 0.57792 -s 0 -d 3 -p tcp -e 1040 -c 1 -i 4 -a 1 -x {1.0 3.0 1 ------- null}
+ -t 0.57792 -s 3 -d 0 -p ack -e 40 -c 1 -i 8 -a 1 -x {3.0 1.0 1 ------- null}
- -t 0.57792 -s 3 -d 0 -p ack -e 40 -c 1 -i 8 -a 1 -x {3.0 1.0 1 ------- null}
h -t 0.57792 -s 3 -d 0 -p ack -e 40 -c 1 -i 8 -a 1 -x {3.0 1.0 -1 ------- null}
r -t 0.57792 -s 0 -d 2 -p tcp -e 1040 -c 2 -i 6 -a 2 -x {4.0 2.0 1 ------- null}
+ -t 0.57792 -s 2 -d 0 -p ack -e 40 -c 2 -i 9 -a 2 -x {2.0 4.0 1 ------- null}
- -t 0.57792 -s 2 -d 0 -p ack -e 40 -c 2 -i 9 -a 2 -x {2.0 4.0 1 ------- null}
h -t 0.57792 -s 2 -d 0 -p ack -e 40 -c 2 -i 9 -a 2 -x {2.0 4.0 -1 ------- null}
r -t 0.58624 -s 0 -d 3 -p tcp -e 1040 -c 1 -i 5 -a 1 -x {1.0 3.0 2 ------- null}
+ -t 0.58624 -s 3 -d 0 -p ack -e 40 -c 1 -i 10 -a 1 -x {3.0 1.0 2 ------- null}
- -t 0.58624 -s 3 -d 0 -p ack -e 40 -c 1 -i 10 -a 1 -x {3.0 1.0 2 ------- null}
h -t 0.58624 -s 3 -d 0 -p ack -e 40 -c 1 -i 10 -a 1 -x {3.0 1.0 -1 ------- null}
r -t 0.58624 -s 0 -d 2 -p tcp -e 1040 -c 2 -i 7 -a 2 -x {4.0 2.0 2 ------- null}
+ -t 0.58624 -s 2 -d 0 -p ack -e 40 -c 2 -i 11 -a 2 -x {2.0 4.0 2 ------- null}
- -t 0.58624 -s 2 -d 0 -p ack -e 40 -c 2 -i 11 -a 2 -x {2.0 4.0 2 ------- null}
h -t 0.58624 -s 2 -d 0 -p ack -e 40 -c 2 -i 11 -a 2 -x {2.0 4.0 -1 ------- null}
r -t 0.58824 -s 3 -d 0 -p ack -e 40 -c 1 -i 8 -a 1 -x {3.0 1.0 1 ------- null}
+ -t 0.58824 -s 0 -d 1 -p ack -e 40 -c 1 -i 8 -a 1 -x {3.0 1.0 1 ------- null}
- -t 0.58824 -s 0 -d 1 -p ack -e 40 -c 1 -i 8 -a 1 -x {3.0 1.0 1 ------- null}
h -t 0.58824 -s 0 -d 1 -p ack -e 40 -c 1 -i 8 -a 1 -x {3.0 1.0 -1 ------- null}
r -t 0.58824 -s 2 -d 0 -p ack -e 40 -c 2 -i 9 -a 2 -x {2.0 4.0 1 ------- null}
+ -t 0.58824 -s 0 -d 4 -p ack -e 40 -c 2 -i 9 -a 2 -x {2.0 4.0 1 ------- null}
- -t 0.58824 -s 0 -d 4 -p ack -e 40 -c 2 -i 9 -a 2 -x {2.0 4.0 1 ------- null}
h -t 0.58824 -s 0 -d 4 -p ack -e 40 -c 2 -i 9 -a 2 -x {2.0 4.0 -1 ------- null}
r -t 0.59656 -s 3 -d 0 -p ack -e 40 -c 1 -i 10 -a 1 -x {3.0 1.0 2 ------- null}
+ -t 0.59656 -s 0 -d 1 -p ack -e 40 -c 1 -i 10 -a 1 -x {3.0 1.0 2 ------- null}
- -t 0.59656 -s 0 -d 1 -p ack -e 40 -c 1 -i 10 -a 1 -x {3.0 1.0 2 ------- null}
h -t 0.59656 -s 0 -d 1 -p ack -e 40 -c 1 -i 10 -a 1 -x {3.0 1.0 -1 ------- null}
r -t 0.59656 -s 2 -d 0 -p ack -e 40 -c 2 -i 11 -a 2 -x {2.0 4.0 2 ------- null}
+ -t 0.59656 -s 0 -d 4 -p ack -e 40 -c 2 -i 11 -a 2 -x {2.0 4.0 2 ------- null}
- -t 0.59656 -s 0 -d 4 -p ack -e 40 -c 2 -i 11 -a 2 -x {2.0 4.0 2 ------- null}
h -t 0.59656 -s 0 -d 4 -p ack -e 40 -c 2 -i 11 -a 2 -x {2.0 4.0 -1 ------- null}
r -t 0.59856 -s 0 -d 1 -p ack -e 40 -c 1 -i 8 -a 1 -x {3.0 1.0 1 ------- null}
+ -t 0.59856 -s 1 -d 0 -p tcp -e 1040 -c 1 -i 12 -a 1 -x {1.0 3.0 3 ------- null}
- -t 0.59856 -s 1 -d 0 -p tcp -e 1040 -c 1 -i 12 -a 1 -x {1.0 3.0 3 ------- null}
h -t 0.59856 -s 1 -d 0 -p tcp -e 1040 -c 1 -i 12 -a 1 -x {1.0 3.0 -1 ------- null}
+ -t 0.59856 -s 1 -d 0 -p tcp -e 1040 -c 1 -i 13 -a 1 -x {1.0 3.0 4 ------- null}
r -t 0.59856 -s 0 -d 4 -p ack -e 40 -c 2 -i 9 -a 2 -x {2.0 4.0 1 ------- null}
+ -t 0.59856 -s 4 -d 0 -p tcp -e 1040 -c 2 -i 14 -a 2 -x {4.0 2.0 3 ------- null}
- -t 0.59856 -s 4 -d 0 -p tcp -e 1040 -c 2 -i 14 -a 2 -x {4.0 2.0 3 ------- null}
h -t 0.59856 -s 4 -d 0 -p tcp -e 1040 -c 2 -i 14 -a 2 -x {4.0 2.0 -1 ------- null}
+ -t 0.59856 -s 4 -d 0 -p tcp -e 1040 -c 2 -i 15 -a 2 -x {4.0 2.0 4 ------- null}
r -t 0.60688 -s 0 -d 1 -p ack -e 40 -c 1 -i 10 -a 1 -x {3.0 1.0 2 ------- null}
+ -t 0.60688 -s 1 -d 0 -p tcp -e 1040 -c 1 -i 16 -a 1 -x {1.0 3.0 5 ------- null}
+ -t 0.60688 -s 1 -d 0 -p tcp -e 1040 -c 1 -i 17 -a 1 -x {1.0 3.0 6 ------- null}
r -t 0.60688 -s 0 -d 4 -p ack -e 40 -c 2 -i 11 -a 2 -x {2.0 4.0 2 ------- null}
+ -t 0.60688 -s 4 -d 0 -p tcp -e 1040 -c 2 -i 18 -a 2 -x {4.0 2.0 5 ------- null}
+ -t 0.60688 -s 4 -d 0 -p tcp -e 1040 -c 2 -i 19 -a 2 -x {4.0 2.0 6 ------- null}
- -t 0.60688 -s 1 -d 0 -p tcp -e 1040 -c 1 -i 13 -a 1 -x {1.0 3.0 4 ------- null}
h -t 0.60688 -s 1 -d 0 -p tcp -e 1040 -c 1 -i 13 -a 1 -x {1.0 3.0 -1 ------- null}
- -t 0.60688 -s 4 -d 0 -p tcp -e 1040 -c 2 -i 15 -a 2 -x {4.0 2.0 4 ------- null}
h -t 0.60688 -s 4 -d 0 -p tcp -e 1040 -c 2 -i 15 -a 2 -x {4.0 2.0 -1 ------- null}
- -t 0.6152 -s 1 -d 0 -p tcp -e 1040 -c 1 -i 16 -a 1 -x {1.0 3.0 5 ------- null}
h -t 0.6152 -s 1 -d 0 -p tcp -e 1040 -c 1 -i 16 -a 1 -x {1.0 3.0 -1 ------- null}
- -t 0.6152 -s 4 -d 0 -p tcp -e 1040 -c 2 -i 18 -a 2 -x {4.0 2.0 5 ------- null}
h -t 0.6152 -s 4 -d 0 -p tcp -e 1040 -c 2 -i 18 -a 2 -x {4.0 2.0 -1 ------- null}
r -t 0.61688 -s 1 -d 0 -p tcp -e 1040 -c 1 -i 12 -a 1 -x {1.0 3.0 3 ------- null}
+ -t 0.61688 -s 0 -d 3 -p tcp -e 1040 -c 1 -i 12 -a 1 -x {1.0 3.0 3 ------- null}
- -t 0.61688 -s 0 -d 3 -p tcp -e 1040 -c 1 -i 12 -a 1 -x {1.0 3.0 3 ------- null}
h -t 0.61688 -s 0 -d 3 -p tcp -e 1040 -c 1 -i 12 -a 1 -x {1.0 3.0 -1 ------- null}
r -t 0.61688 -s 4 -d 0 -p tcp -e 1040 -c 2 -i 14 -a 2 -x {4.0 2.0 3 ------- null}
+ -t 0.61688 -s 0 -d 2 -p tcp -e 1040 -c 2 -i 14 -a 2 -x {4.0 2.0 3 ------- null}
- -t 0.61688 -s 0 -d 2 -p tcp -e 1040 -c 2 -i 14 -a 2 -x {4.0 2.0 3 ------- null}
h -t 0.61688 -s 0 -d 2 -p tcp -e 1040 -c 2 -i 14 -a 2 -x {4.0 2.0 -1 ------- null}
- -t 0.62352 -s 1 -d 0 -p tcp -e 1040 -c 1 -i 17 -a 1 -x {1.0 3.0 6 ------- null}
h -t 0.62352 -s 1 -d 0 -p tcp -e 1040 -c 1 -i 17 -a 1 -x {1.0 3.0 -1 ------- null}
- -t 0.62352 -s 4 -d 0 -p tcp -e 1040 -c 2 -i 19 -a 2 -x {4.0 2.0 6 ------- null}
h -t 0.62352 -s 4 -d 0 -p tcp -e 1040 -c 2 -i 19 -a 2 -x {4.0 2.0 -1 ------- null}
r -t 0.6252 -s 1 -d 0 -p tcp -e 1040 -c 1 -i 13 -a 1 -x {1.0 3.0 4 ------- null}
+ -t 0.6252 -s 0 -d 3 -p tcp -e 1040 -c 1 -i 13 -a 1 -x {1.0 3.0 4 ------- null}
r -t 0.6252 -s 4 -d 0 -p tcp -e 1040 -c 2 -i 15 -a 2 -x {4.0 2.0 4 ------- null}
+ -t 0.6252 -s 0 -d 2 -p tcp -e 1040 -c 2 -i 15 -a 2 -x {4.0 2.0 4 ------- null}
- -t 0.6252 -s 0 -d 3 -p tcp -e 1040 -c 1 -i 13 -a 1 -x {1.0 3.0 4 ------- null}
h -t 0.6252 -s 0 -d 3 -p tcp -e 1040 -c 1 -i 13 -a 1 -x {1.0 3.0 -1 ------- null}
- -t 0.6252 -s 0 -d 2 -p tcp -e 1040 -c 2 -i 15 -a 2 -x {4.0 2.0 4 ------- null}
h -t 0.6252 -s 0 -d 2 -p tcp -e 1040 -c 2 -i 15 -a 2 -x {4.0 2.0 -1 ------- null}
r -t 0.63352 -s 1 -d 0 -p tcp -e 1040 -c 1 -i 16 -a 1 -x {1.0 3.0 5 ------- null}
+ -t 0.63352 -s 0 -d 3 -p tcp -e 1040 -c 1 -i 16 -a 1 -x {1.0 3.0 5 ------- null}
r -t 0.63352 -s 4 -d 0 -p tcp -e 1040 -c 2 -i 18 -a 2 -x {4.0 2.0 5 ------- null}
+ -t 0.63352 -s 0 -d 2 -p tcp -e 1040 -c 2 -i 18 -a 2 -x {4.0 2.0 5 ------- null}
- -t 0.63352 -s 0 -d 3 -p tcp -e 1040 -c 1 -i 16 -a 1 -x {1.0 3.0 5 ------- null}
h -t 0.63352 -s 0 -d 3 -p tcp -e 1040 -c 1 -i 16 -a 1 -x {1.0 3.0 -1 ------- null}
- -t 0.63352 -s 0 -d 2 -p tcp -e 1040 -c 2 -i 18 -a 2 -x {4.0 2.0 5 ------- null}
h -t 0.63352 -s 0 -d 2 -p tcp -e 1040 -c 2 -i 18 -a 2 -x {4.0 2.0 -1 ------- null}
r -t 0.6352 -s 0 -d 3 -p tcp -e 1040 -c 1 -i 12 -a 1 -x {1.0 3.0 3 ------- null}
+ -t 0.6352 -s 3 -d 0 -p ack -e 40 -c 1 -i 20 -a 1 -x {3.0 1.0 3 ------- null}
- -t 0.6352 -s 3 -d 0 -p ack -e 40 -c 1 -i 20 -a 1 -x {3.0 1.0 3 ------- null}
h -t 0.6352 -s 3 -d 0 -p ack -e 40 -c 1 -i 20 -a 1 -x {3.0 1.0 -1 ------- null}
r -t 0.6352 -s 0 -d 2 -p tcp -e 1040 -c 2 -i 14 -a 2 -x {4.0 2.0 3 ------- null}
+ -t 0.6352 -s 2 -d 0 -p ack -e 40 -c 2 -i 21 -a 2 -x {2.0 4.0 3 ------- null}
- -t 0.6352 -s 2 -d 0 -p ack -e 40 -c 2 -i 21 -a 2 -x {2.0 4.0 3 ------- null}
h -t 0.6352 -s 2 -d 0 -p ack -e 40 -c 2 -i 21 -a 2 -x {2.0 4.0 -1 ------- null}
r -t 0.64184 -s 1 -d 0 -p tcp -e 1040 -c 1 -i 17 -a 1 -x {1.0 3.0 6 ------- null}
+ -t 0.64184 -s 0 -d 3 -p tcp -e 1040 -c 1 -i 17 -a 1 -x {1.0 3.0 6 ------- null}
r -t 0.64184 -s 4 -d 0 -p tcp -e 1040 -c 2 -i 19 -a 2 -x {4.0 2.0 6 ------- null}
+ -t 0.64184 -s 0 -d 2 -p tcp -e 1040 -c 2 -i 19 -a 2 -x {4.0 2.0 6 ------- null}
- -t 0.64184 -s 0 -d 3 -p tcp -e 1040 -c 1 -i 17 -a 1 -x {1.0 3.0 6 ------- null}
h -t 0.64184 -s 0 -d 3 -p tcp -e 1040 -c 1 -i 17 -a 1 -x {1.0 3.0 -1 ------- null}
- -t 0.64184 -s 0 -d 2 -p tcp -e 1040 -c 2 -i 19 -a 2 -x {4.0 2.0 6 ------- null}
h -t 0.64184 -s 0 -d 2 -p tcp -e 1040 -c 2 -i 19 -a 2 -x {4.0 2.0 -1 ------- null}
r -t 0.64352 -s 0 -d 3 -p tcp -e 1040 -c 1 -i 13 -a 1 -x {1.0 3.0 4 ------- null}
+ -t 0.64352 -s 3 -d 0 -p ack -e 40 -c 1 -i 22 -a 1 -x {3.0 1.0 4 ------- null}
- -t 0.64352 -s 3 -d 0 -p ack -e 40 -c 1 -i 22 -a 1 -x {3.0 1.0 4 ------- null}
h -t 0.64352 -s 3 -d 0 -p ack -e 40 -c 1 -i 22 -a 1 -x {3.0 1.0 -1 ------- null}
r -t 0.64352 -s 0 -d 2 -p tcp -e 1040 -c 2 -i 15 -a 2 -x {4.0 2.0 4 ------- null}
+ -t 0.64352 -s 2 -d 0 -p ack -e 40 -c 2 -i 23 -a 2 -x {2.0 4.0 4 ------- null}
- -t 0.64352 -s 2 -d 0 -p ack -e 40 -c 2 -i 23 -a 2 -x {2.0 4.0 4 ------- null}
h -t 0.64352 -s 2 -d 0 -p ack -e 40 -c 2 -i 23 -a 2 -x {2.0 4.0 -1 ------- null}
r -t 0.64552 -s 3 -d 0 -p ack -e 40 -c 1 -i 20 -a 1 -x {3.0 1.0 3 ------- null}
+ -t 0.64552 -s 0 -d 1 -p ack -e 40 -c 1 -i 20 -a 1 -x {3.0 1.0 3 ------- null}
- -t 0.64552 -s 0 -d 1 -p ack -e 40 -c 1 -i 20 -a 1 -x {3.0 1.0 3 ------- null}
h -t 0.64552 -s 0 -d 1 -p ack -e 40 -c 1 -i 20 -a 1 -x {3.0 1.0 -1 ------- null}
r -t 0.64552 -s 2 -d 0 -p ack -e 40 -c 2 -i 21 -a 2 -x {2.0 4.0 3 ------- null}
+ -t 0.64552 -s 0 -d 4 -p ack -e 40 -c 2 -i 21 -a 2 -x {2.0 4.0 3 ------- null}
- -t 0.64552 -s 0 -d 4 -p ack -e 40 -c 2 -i 21 -a 2 -x {2.0 4.0 3 ------- null}
h -t 0.64552 -s 0 -d 4 -p ack -e 40 -c 2 -i 21 -a 2 -x {2.0 4.0 -1 ------- null}
r -t 0.65184 -s 0 -d 3 -p tcp -e 1040 -c 1 -i 16 -a 1 -x {1.0 3.0 5 ------- null}
+ -t 0.65184 -s 3 -d 0 -p ack -e 40 -c 1 -i 24 -a 1 -x {3.0 1.0 5 ------- null}
- -t 0.65184 -s 3 -d 0 -p ack -e 40 -c 1 -i 24 -a 1 -x {3.0 1.0 5 ------- null}
h -t 0.65184 -s 3 -d 0 -p ack -e 40 -c 1 -i 24 -a 1 -x {3.0 1.0 -1 ------- null}
r -t 0.65184 -s 0 -d 2 -p tcp -e 1040 -c 2 -i 18 -a 2 -x {4.0 2.0 5 ------- null}
+ -t 0.65184 -s 2 -d 0 -p ack -e 40 -c 2 -i 25 -a 2 -x {2.0 4.0 5 ------- null}
- -t 0.65184 -s 2 -d 0 -p ack -e 40 -c 2 -i 25 -a 2 -x {2.0 4.0 5 ------- null}
h -t 0.65184 -s 2 -d 0 -p ack -e 40 -c 2 -i 25 -a 2 -x {2.0 4.0 -1 ------- null}
r -t 0.65384 -s 3 -d 0 -p ack -e 40 -c 1 -i 22 -a 1 -x {3.0 1.0 4 ------- null}
+ -t 0.65384 -s 0 -d 1 -p ack -e 40 -c 1 -i 22 -a 1 -x {3.0 1.0 4 ------- null}
- -t 0.65384 -s 0 -d 1 -p ack -e 40 -c 1 -i 22 -a 1 -x {3.0 1.0 4 ------- null}
h -t 0.65384 -s 0 -d 1 -p ack -e 40 -c 1 -i 22 -a 1 -x {3.0 1.0 -1 ------- null}
r -t 0.65384 -s 2 -d 0 -p ack -e 40 -c 2 -i 23 -a 2 -x {2.0 4.0 4 ------- null}
+ -t 0.65384 -s 0 -d 4 -p ack -e 40 -c 2 -i 23 -a 2 -x {2.0 4.0 4 ------- null}
- -t 0.65384 -s 0 -d 4 -p ack -e 40 -c 2 -i 23 -a 2 -x {2.0 4.0 4 ------- null}
h -t 0.65384 -s 0 -d 4 -p ack -e 40 -c 2 -i 23 -a 2 -x {2.0 4.0 -1 ------- null}
r -t 0.65584 -s 0 -d 1 -p ack -e 40 -c 1 -i 20 -a 1 -x {3.0 1.0 3 ------- null}
+ -t 0.65584 -s 1 -d 0 -p tcp -e 1040 -c 1 -i 26 -a 1 -x {1.0 3.0 7 ------- null}
- -t 0.65584 -s 1 -d 0 -p tcp -e 1040 -c 1 -i 26 -a 1 -x {1.0 3.0 7 ------- null}
h -t 0.65584 -s 1 -d 0 -p tcp -e 1040 -c 1 -i 26 -a 1 -x {1.0 3.0 -1 ------- null}
+ -t 0.65584 -s 1 -d 0 -p tcp -e 1040 -c 1 -i 27 -a 1 -x {1.0 3.0 8 ------- null}
r -t 0.65584 -s 0 -d 4 -p ack -e 40 -c 2 -i 21 -a 2 -x {2.0 4.0 3 ------- null}
+ -t 0.65584 -s 4 -d 0 -p tcp -e 1040 -c 2 -i 28 -a 2 -x {4.0 2.0 7 ------- null}
- -t 0.65584 -s 4 -d 0 -p tcp -e 1040 -c 2 -i 28 -a 2 -x {4.0 2.0 7 ------- null}
h -t 0.65584 -s 4 -d 0 -p tcp -e 1040 -c 2 -i 28 -a 2 -x {4.0 2.0 -1 ------- null}
+ -t 0.65584 -s 4 -d 0 -p tcp -e 1040 -c 2 -i 29 -a 2 -x {4.0 2.0 8 ------- null}
r -t 0.66016 -s 0 -d 3 -p tcp -e 1040 -c 1 -i 17 -a 1 -x {1.0 3.0 6 ------- null}
+ -t 0.66016 -s 3 -d 0 -p ack -e 40 -c 1 -i 30 -a 1 -x {3.0 1.0 6 ------- null}
- -t 0.66016 -s 3 -d 0 -p ack -e 40 -c 1 -i 30 -a 1 -x {3.0 1.0 6 ------- null}
h -t 0.66016 -s 3 -d 0 -p ack -e 40 -c 1 -i 30 -a 1 -x {3.0 1.0 -1 ------- null}
r -t 0.66016 -s 0 -d 2 -p tcp -e 1040 -c 2 -i 19 -a 2 -x {4.0 2.0 6 ------- null}
+ -t 0.66016 -s 2 -d 0 -p ack -e 40 -c 2 -i 31 -a 2 -x {2.0 4.0 6 ------- null}
- -t 0.66016 -s 2 -d 0 -p ack -e 40 -c 2 -i 31 -a 2 -x {2.0 4.0 6 ------- null}
h -t 0.66016 -s 2 -d 0 -p ack -e 40 -c 2 -i 31 -a 2 -x {2.0 4.0 -1 ------- null}
r -t 0.66216 -s 3 -d 0 -p ack -e 40 -c 1 -i 24 -a 1 -x {3.0 1.0 5 ------- null}
+ -t 0.66216 -s 0 -d 1 -p ack -e 40 -c 1 -i 24 -a 1 -x {3.0 1.0 5 ------- null}
- -t 0.66216 -s 0 -d 1 -p ack -e 40 -c 1 -i 24 -a 1 -x {3.0 1.0 5 ------- null}
h -t 0.66216 -s 0 -d 1 -p ack -e 40 -c 1 -i 24 -a 1 -x {3.0 1.0 -1 ------- null}
r -t 0.66216 -s 2 -d 0 -p ack -e 40 -c 2 -i 25 -a 2 -x {2.0 4.0 5 ------- null}
+ -t 0.66216 -s 0 -d 4 -p ack -e 40 -c 2 -i 25 -a 2 -x {2.0 4.0 5 ------- null}
- -t 0.66216 -s 0 -d 4 -p ack -e 40 -c 2 -i 25 -a 2 -x {2.0 4.0 5 ------- null}
h -t 0.66216 -s 0 -d 4 -p ack -e 40 -c 2 -i 25 -a 2 -x {2.0 4.0 -1 ------- null}
r -t 0.66416 -s 0 -d 1 -p ack -e 40 -c 1 -i 22 -a 1 -x {3.0 1.0 4 ------- null}
+ -t 0.66416 -s 1 -d 0 -p tcp -e 1040 -c 1 -i 32 -a 1 -x {1.0 3.0 9 ------- null}
+ -t 0.66416 -s 1 -d 0 -p tcp -e 1040 -c 1 -i 33 -a 1 -x {1.0 3.0 10 ------- null}
r -t 0.66416 -s 0 -d 4 -p ack -e 40 -c 2 -i 23 -a 2 -x {2.0 4.0 4 ------- null}
+ -t 0.66416 -s 4 -d 0 -p tcp -e 1040 -c 2 -i 34 -a 2 -x {4.0 2.0 9 ------- null}
+ -t 0.66416 -s 4 -d 0 -p tcp -e 1040 -c 2 -i 35 -a 2 -x {4.0 2.0 10 ------- null}
- -t 0.66416 -s 1 -d 0 -p tcp -e 1040 -c 1 -i 27 -a 1 -x {1.0 3.0 8 ------- null}
h -t 0.66416 -s 1 -d 0 -p tcp -e 1040 -c 1 -i 27 -a 1 -x {1.0 3.0 -1 ------- null}
- -t 0.66416 -s 4 -d 0 -p tcp -e 1040 -c 2 -i 29 -a 2 -x {4.0 2.0 8 ------- null}
h -t 0.66416 -s 4 -d 0 -p tcp -e 1040 -c 2 -i 29 -a 2 -x {4.0 2.0 -1 ------- null}
r -t 0.67048 -s 3 -d 0 -p ack -e 40 -c 1 -i 30 -a 1 -x {3.0 1.0 6 ------- null}
+ -t 0.67048 -s 0 -d 1 -p ack -e 40 -c 1 -i 30 -a 1 -x {3.0 1.0 6 ------- null}
- -t 0.67048 -s 0 -d 1 -p ack -e 40 -c 1 -i 30 -a 1 -x {3.0 1.0 6 ------- null}
h -t 0.67048 -s 0 -d 1 -p ack -e 40 -c 1 -i 30 -a 1 -x {3.0 1.0 -1 ------- null}
r -t 0.67048 -s 2 -d 0 -p ack -e 40 -c 2 -i 31 -a 2 -x {2.0 4.0 6 ------- null}
+ -t 0.67048 -s 0 -d 4 -p ack -e 40 -c 2 -i 31 -a 2 -x {2.0 4.0 6 ------- null}
- -t 0.67048 -s 0 -d 4 -p ack -e 40 -c 2 -i 31 -a 2 -x {2.0 4.0 6 ------- null}
h -t 0.67048 -s 0 -d 4 -p ack -e 40 -c 2 -i 31 -a 2 -x {2.0 4.0 -1 ------- null}
r -t 0.67248 -s 0 -d 1 -p ack -e 40 -c 1 -i 24 -a 1 -x {3.0 1.0 5 ------- null}
+ -t 0.67248 -s 1 -d 0 -p tcp -e 1040 -c 1 -i 36 -a 1 -x {1.0 3.0 11 ------- null}
+ -t 0.67248 -s 1 -d 0 -p tcp -e 1040 -c 1 -i 37 -a 1 -x {1.0 3.0 12 ------- null}
r -t 0.67248 -s 0 -d 4 -p ack -e 40 -c 2 -i 25 -a 2 -x {2.0 4.0 5 ------- null}
+ -t 0.67248 -s 4 -d 0 -p tcp -e 1040 -c 2 -i 38 -a 2 -x {4.0 2.0 11 ------- null}
+ -t 0.67248 -s 4 -d 0 -p tcp -e 1040 -c 2 -i 39 -a 2 -x {4.0 2.0 12 ------- null}
- -t 0.67248 -s 1 -d 0 -p tcp -e 1040 -c 1 -i 32 -a 1 -x {1.0 3.0 9 ------- null}
h -t 0.67248 -s 1 -d 0 -p tcp -e 1040 -c 1 -i 32 -a 1 -x {1.0 3.0 -1 ------- null}
- -t 0.67248 -s 4 -d 0 -p tcp -e 1040 -c 2 -i 34 -a 2 -x {4.0 2.0 9 ------- null}
h -t 0.67248 -s 4 -d 0 -p tcp -e 1040 -c 2 -i 34 -a 2 -x {4.0 2.0 -1 ------- null}
r -t 0.67416 -s 1 -d 0 -p tcp -e 1040 -c 1 -i 26 -a 1 -x {1.0 3.0 7 ------- null}
+ -t 0.67416 -s 0 -d 3 -p tcp -e 1040 -c 1 -i 26 -a 1 -x {1.0 3.0 7 ------- null}
- -t 0.67416 -s 0 -d 3 -p tcp -e 1040 -c 1 -i 26 -a 1 -x {1.0 3.0 7 ------- null}
h -t 0.67416 -s 0 -d 3 -p tcp -e 1040 -c 1 -i 26 -a 1 -x {1.0 3.0 -1 ------- null}
r -t 0.67416 -s 4 -d 0 -p tcp -e 1040 -c 2 -i 28 -a 2 -x {4.0 2.0 7 ------- null}
+ -t 0.67416 -s 0 -d 2 -p tcp -e 1040 -c 2 -i 28 -a 2 -x {4.0 2.0 7 ------- null}
- -t 0.67416 -s 0 -d 2 -p tcp -e 1040 -c 2 -i 28 -a 2 -x {4.0 2.0 7 ------- null}
h -t 0.67416 -s 0 -d 2 -p tcp -e 1040 -c 2 -i 28 -a 2 -x {4.0 2.0 -1 ------- null}
r -t 0.6808 -s 0 -d 1 -p ack -e 40 -c 1 -i 30 -a 1 -x {3.0 1.0 6 ------- null}
+ -t 0.6808 -s 1 -d 0 -p tcp -e 1040 -c 1 -i 40 -a 1 -x {1.0 3.0 13 ------- null}
+ -t 0.6808 -s 1 -d 0 -p tcp -e 1040 -c 1 -i 41 -a 1 -x {1.0 3.0 14 ------- null}
r -t 0.6808 -s 0 -d 4 -p ack -e 40 -c 2 -i 31 -a 2 -x {2.0 4.0 6 ------- null}
+ -t 0.6808 -s 4 -d 0 -p tcp -e 1040 -c 2 -i 42 -a 2 -x {4.0 2.0 13 ------- null}
+ -t 0.6808 -s 4 -d 0 -p tcp -e 1040 -c 2 -i 43 -a 2 -x {4.0 2.0 14 ------- null}
- -t 0.6808 -s 1 -d 0 -p tcp -e 1040 -c 1 -i 33 -a 1 -x {1.0 3.0 10 ------- null}
h -t 0.6808 -s 1 -d 0 -p tcp -e 1040 -c 1 -i 33 -a 1 -x {1.0 3.0 -1 ------- null}
- -t 0.6808 -s 4 -d 0 -p tcp -e 1040 -c 2 -i 35 -a 2 -x {4.0 2.0 10 ------- null}
h -t 0.6808 -s 4 -d 0 -p tcp -e 1040 -c 2 -i 35 -a 2 -x {4.0 2.0 -1 ------- null}
r -t 0.68248 -s 1 -d 0 -p tcp -e 1040 -c 1 -i 27 -a 1 -x {1.0 3.0 8 ------- null}
+ -t 0.68248 -s 0 -d 3 -p tcp -e 1040 -c 1 -i 27 -a 1 -x {1.0 3.0 8 ------- null}
r -t 0.68248 -s 4 -d 0 -p tcp -e 1040 -c 2 -i 29 -a 2 -x {4.0 2.0 8 ------- null}
+ -t 0.68248 -s 0 -d 2 -p tcp -e 1040 -c 2 -i 29 -a 2 -x {4.0 2.0 8 ------- null}
- -t 0.68248 -s 0 -d 3 -p tcp -e 1040 -c 1 -i 27 -a 1 -x {1.0 3.0 8 ------- null}
h -t 0.68248 -s 0 -d 3 -p tcp -e 1040 -c 1 -i 27 -a 1 -x {1.0 3.0 -1 ------- null}
- -t 0.68248 -s 0 -d 2 -p tcp -e 1040 -c 2 -i 29 -a 2 -x {4.0 2.0 8 ------- null}
h -t 0.68248 -s 0 -d 2 -p tcp -e 1040 -c 2 -i 29 -a 2 -x {4.0 2.0 -1 ------- null}
- -t 0.68912 -s 1 -d 0 -p tcp -e 1040 -c 1 -i 36 -a 1 -x {1.0 3.0 11 ------- null}
h -t 0.68912 -s 1 -d 0 -p tcp -e 1040 -c 1 -i 36 -a 1 -x {1.0 3.0 -1 ------- null}
- -t 0.68912 -s 4 -d 0 -p tcp -e 1040 -c 2 -i 38 -a 2 -x {4.0 2.0 11 ------- null}
h -t 0.68912 -s 4 -d 0 -p tcp -e 1040 -c 2 -i 38 -a 2 -x {4.0 2.0 -1 ------- null}
r -t 0.6908 -s 1 -d 0 -p tcp -e 1040 -c 1 -i 32 -a 1 -x {1.0 3.0 9 ------- null}
+ -t 0.6908 -s 0 -d 3 -p tcp -e 1040 -c 1 -i 32 -a 1 -x {1.0 3.0 9 ------- null}
r -t 0.6908 -s 4 -d 0 -p tcp -e 1040 -c 2 -i 34 -a 2 -x {4.0 2.0 9 ------- null}
+ -t 0.6908 -s 0 -d 2 -p tcp -e 1040 -c 2 -i 34 -a 2 -x {4.0 2.0 9 ------- null}
- -t 0.6908 -s 0 -d 3 -p tcp -e 1040 -c 1 -i 32 -a 1 -x {1.0 3.0 9 ------- null}
h -t 0.6908 -s 0 -d 3 -p tcp -e 1040 -c 1 -i 32 -a 1 -x {1.0 3.0 -1 ------- null}
- -t 0.6908 -s 0 -d 2 -p tcp -e 1040 -c 2 -i 34 -a 2 -x {4.0 2.0 9 ------- null}
h -t 0.6908 -s 0 -d 2 -p tcp -e 1040 -c 2 -i 34 -a 2 -x {4.0 2.0 -1 ------- null}
r -t 0.69248 -s 0 -d 3 -p tcp -e 1040 -c 1 -i 26 -a 1 -x {1.0 3.0 7 ------- null}
+ -t 0.69248 -s 3 -d 0 -p ack -e 40 -c 1 -i 44 -a 1 -x {3.0 1.0 7 ------- null}
- -t 0.69248 -s 3 -d 0 -p ack -e 40 -c 1 -i 44 -a 1 -x {3.0 1.0 7 ------- null}
h -t 0.69248 -s 3 -d 0 -p ack -e 40 -c 1 -i 44 -a 1 -x {3.0 1.0 -1 ------- null}
r -t 0.69248 -s 0 -d 2 -p tcp -e 1040 -c 2 -i 28 -a 2 -x {4.0 2.0 7 ------- null}
+ -t 0.69248 -s 2 -d 0 -p ack -e 40 -c 2 -i 45 -a 2 -x {2.0 4.0 7 ------- null}
- -t 0.69248 -s 2 -d 0 -p ack -e 40 -c 2 -i 45 -a 2 -x {2.0 4.0 7 ------- null}
h -t 0.69248 -s 2 -d 0 -p ack -e 40 -c 2 -i 45 -a 2 -x {2.0 4.0 -1 ------- null}
- -t 0.69744 -s 1 -d 0 -p tcp -e 1040 -c 1 -i 37 -a 1 -x {1.0 3.0 12 ------- null}
h -t 0.69744 -s 1 -d 0 -p tcp -e 1040 -c 1 -i 37 -a 1 -x {1.0 3.0 -1 ------- null}
- -t 0.69744 -s 4 -d 0 -p tcp -e 1040 -c 2 -i 39 -a 2 -x {4.0 2.0 12 ------- null}
h -t 0.69744 -s 4 -d 0 -p tcp -e 1040 -c 2 -i 39 -a 2 -x {4.0 2.0 -1 ------- null}
r -t 0.69912 -s 1 -d 0 -p tcp -e 1040 -c 1 -i 33 -a 1 -x {1.0 3.0 10 ------- null}
+ -t 0.69912 -s 0 -d 3 -p tcp -e 1040 -c 1 -i 33 -a 1 -x {1.0 3.0 10 ------- null}
r -t 0.69912 -s 4 -d 0 -p tcp -e 1040 -c 2 -i 35 -a 2 -x {4.0 2.0 10 ------- null}
+ -t 0.69912 -s 0 -d 2 -p tcp -e 1040 -c 2 -i 35 -a 2 -x {4.0 2.0 10 ------- null}
- -t 0.69912 -s 0 -d 3 -p tcp -e 1040 -c 1 -i 33 -a 1 -x {1.0 3.0 10 ------- null}
h -t 0.69912 -s 0 -d 3 -p tcp -e 1040 -c 1 -i 33 -a 1 -x {1.0 3.0 -1 ------- null}
- -t 0.69912 -s 0 -d 2 -p tcp -e 1040 -c 2 -i 35 -a 2 -x {4.0 2.0 10 ------- null}
h -t 0.69912 -s 0 -d 2 -p tcp -e 1040 -c 2 -i 35 -a 2 -x {4.0 2.0 -1 ------- null}
r -t 0.7008 -s 0 -d 3 -p tcp -e 1040 -c 1 -i 27 -a 1 -x {1.0 3.0 8 ------- null}
+ -t 0.7008 -s 3 -d 0 -p ack -e 40 -c 1 -i 46 -a 1 -x {3.0 1.0 8 ------- null}
- -t 0.7008 -s 3 -d 0 -p ack -e 40 -c 1 -i 46 -a 1 -x {3.0 1.0 8 ------- null}
h -t 0.7008 -s 3 -d 0 -p ack -e 40 -c 1 -i 46 -a 1 -x {3.0 1.0 -1 ------- null}
r -t 0.7008 -s 0 -d 2 -p tcp -e 1040 -c 2 -i 29 -a 2 -x {4.0 2.0 8 ------- null}
+ -t 0.7008 -s 2 -d 0 -p ack -e 40 -c 2 -i 47 -a 2 -x {2.0 4.0 8 ------- null}
- -t 0.7008 -s 2 -d 0 -p ack -e 40 -c 2 -i 47 -a 2 -x {2.0 4.0 8 ------- null}
h -t 0.7008 -s 2 -d 0 -p ack -e 40 -c 2 -i 47 -a 2 -x {2.0 4.0 -1 ------- null}
r -t 0.7028 -s 3 -d 0 -p ack -e 40 -c 1 -i 44 -a 1 -x {3.0 1.0 7 ------- null}
+ -t 0.7028 -s 0 -d 1 -p ack -e 40 -c 1 -i 44 -a 1 -x {3.0 1.0 7 ------- null}
- -t 0.7028 -s 0 -d 1 -p ack -e 40 -c 1 -i 44 -a 1 -x {3.0 1.0 7 ------- null}
h -t 0.7028 -s 0 -d 1 -p ack -e 40 -c 1 -i 44 -a 1 -x {3.0 1.0 -1 ------- null}
r -t 0.7028 -s 2 -d 0 -p ack -e 40 -c 2 -i 45 -a 2 -x {2.0 4.0 7 ------- null}
+ -t 0.7028 -s 0 -d 4 -p ack -e 40 -c 2 -i 45 -a 2 -x {2.0 4.0 7 ------- null}
- -t 0.7028 -s 0 -d 4 -p ack -e 40 -c 2 -i 45 -a 2 -x {2.0 4.0 7 ------- null}
h -t 0.7028 -s 0 -d 4 -p ack -e 40 -c 2 -i 45 -a 2 -x {2.0 4.0 -1 ------- null}
- -t 0.70576 -s 1 -d 0 -p tcp -e 1040 -c 1 -i 40 -a 1 -x {1.0 3.0 13 ------- null}
h -t 0.70576 -s 1 -d 0 -p tcp -e 1040 -c 1 -i 40 -a 1 -x {1.0 3.0 -1 ------- null}
- -t 0.70576 -s 4 -d 0 -p tcp -e 1040 -c 2 -i 42 -a 2 -x {4.0 2.0 13 ------- null}
h -t 0.70576 -s 4 -d 0 -p tcp -e 1040 -c 2 -i 42 -a 2 -x {4.0 2.0 -1 ------- null}
r -t 0.70744 -s 1 -d 0 -p tcp -e 1040 -c 1 -i 36 -a 1 -x {1.0 3.0 11 ------- null}
+ -t 0.70744 -s 0 -d 3 -p tcp -e 1040 -c 1 -i 36 -a 1 -x {1.0 3.0 11 ------- null}
r -t 0.70744 -s 4 -d 0 -p tcp -e 1040 -c 2 -i 38 -a 2 -x {4.0 2.0 11 ------- null}
+ -t 0.70744 -s 0 -d 2 -p tcp -e 1040 -c 2 -i 38 -a 2 -x {4.0 2.0 11 ------- null}
- -t 0.70744 -s 0 -d 3 -p tcp -e 1040 -c 1 -i 36 -a 1 -x {1.0 3.0 11 ------- null}
h -t 0.70744 -s 0 -d 3 -p tcp -e 1040 -c 1 -i 36 -a 1 -x {1.0 3.0 -1 ------- null}
- -t 0.70744 -s 0 -d 2 -p tcp -e 1040 -c 2 -i 38 -a 2 -x {4.0 2.0 11 ------- null}
h -t 0.70744 -s 0 -d 2 -p tcp -e 1040 -c 2 -i 38 -a 2 -x {4.0 2.0 -1 ------- null}
r -t 0.70912 -s 0 -d 3 -p tcp -e 1040 -c 1 -i 32 -a 1 -x {1.0 3.0 9 ------- null}
+ -t 0.70912 -s 3 -d 0 -p ack -e 40 -c 1 -i 48 -a 1 -x {3.0 1.0 9 ------- null}
- -t 0.70912 -s 3 -d 0 -p ack -e 40 -c 1 -i 48 -a 1 -x {3.0 1.0 9 ------- null}
h -t 0.70912 -s 3 -d 0 -p ack -e 40 -c 1 -i 48 -a 1 -x {3.0 1.0 -1 ------- null}
r -t 0.70912 -s 0 -d 2 -p tcp -e 1040 -c 2 -i 34 -a 2 -x {4.0 2.0 9 ------- null}
+ -t 0.70912 -s 2 -d 0 -p ack -e 40 -c 2 -i 49 -a 2 -x {2.0 4.0 9 ------- null}
- -t 0.70912 -s 2 -d 0 -p ack -e 40 -c 2 -i 49 -a 2 -x {2.0 4.0 9 ------- null}
h -t 0.70912 -s 2 -d 0 -p ack -e 40 -c 2 -i 49 -a 2 -x {2.0 4.0 -1 ------- null}
r -t 0.71112 -s 3 -d 0 -p ack -e 40 -c 1 -i 46 -a 1 -x {3.0 1.0 8 ------- null}
+ -t 0.71112 -s 0 -d 1 -p ack -e 40 -c 1 -i 46 -a 1 -x {3.0 1.0 8 ------- null}
- -t 0.71112 -s 0 -d 1 -p ack -e 40 -c 1 -i 46 -a 1 -x {3.0 1.0 8 ------- null}
h -t 0.71112 -s 0 -d 1 -p ack -e 40 -c 1 -i 46 -a 1 -x {3.0 1.0 -1 ------- null}
r -t 0.71112 -s 2 -d 0 -p ack -e 40 -c 2 -i 47 -a 2 -x {2.0 4.0 8 ------- null}
+ -t 0.71112 -s 0 -d 4 -p ack -e 40 -c 2 -i 47 -a 2 -x {2.0 4.0 8 ------- null}
- -t 0.71112 -s 0 -d 4 -p ack -e 40 -c 2 -i 47 -a 2 -x {2.0 4.0 8 ------- null}
h -t 0.71112 -s 0 -d 4 -p ack -e 40 -c 2 -i 47 -a 2 -x {2.0 4.0 -1 ------- null}
r -t 0.71312 -s 0 -d 1 -p ack -e 40 -c 1 -i 44 -a 1 -x {3.0 1.0 7 ------- null}
+ -t 0.71312 -s 1 -d 0 -p tcp -e 1040 -c 1 -i 50 -a 1 -x {1.0 3.0 15 ------- null}
+ -t 0.71312 -s 1 -d 0 -p tcp -e 1040 -c 1 -i 51 -a 1 -x {1.0 3.0 16 ------- null}
r -t 0.71312 -s 0 -d 4 -p ack -e 40 -c 2 -i 45 -a 2 -x {2.0 4.0 7 ------- null}
+ -t 0.71312 -s 4 -d 0 -p tcp -e 1040 -c 2 -i 52 -a 2 -x {4.0 2.0 15 ------- null}
+ -t 0.71312 -s 4 -d 0 -p tcp -e 1040 -c 2 -i 53 -a 2 -x {4.0 2.0 16 ------- null}
- -t 0.71408 -s 1 -d 0 -p tcp -e 1040 -c 1 -i 41 -a 1 -x {1.0 3.0 14 ------- null}
h -t 0.71408 -s 1 -d 0 -p tcp -e 1040 -c 1 -i 41 -a 1 -x {1.0 3.0 -1 ------- null}
- -t 0.71408 -s 4 -d 0 -p tcp -e 1040 -c 2 -i 43 -a 2 -x {4.0 2.0 14 ------- null}
h -t 0.71408 -s 4 -d 0 -p tcp -e 1040 -c 2 -i 43 -a 2 -x {4.0 2.0 -1 ------- null}
r -t 0.71576 -s 1 -d 0 -p tcp -e 1040 -c 1 -i 37 -a 1 -x {1.0 3.0 12 ------- null}
+ -t 0.71576 -s 0 -d 3 -p tcp -e 1040 -c 1 -i 37 -a 1 -x {1.0 3.0 12 ------- null}
r -t 0.71576 -s 4 -d 0 -p tcp -e 1040 -c 2 -i 39 -a 2 -x {4.0 2.0 12 ------- null}